{
    "element": [
        {
            "ElementSymbol": "H",
            "ElementName": "Hydrogen",
            "AtomicNumber": "1",
            "AtomicWeight": "1.00794",
            "Protons": "1",
            "Neutrons": "1.00794",
            "Electrons": "1",
            "BoilingPoint": "14.01 (-259.14 &deg;C)",
            "MeltingPoint": "20.28 (-252.87 &deg;C)",
            "MoreInfoLink": "http://en.wikipedia.org/wiki/Hydrogen",
            "BriefDescription": ""
        }
    ]
}